32
Lattice="6.43258026 0.0 0.0 -3.216290136 5.570777914 0.0 0.0 0.0 10.47992492" Properties=species:S:1:pos:R:3:forces:R:3 tag=CrystalGa16N16 energy=-194.54402793 pbc="T T T"
Ga       1.60815000       0.92846000       2.61537000       0.00003300       0.00001300       0.00601200 
Ga       3.21629000       3.71385000       2.61537000      -0.00003000      -0.00002000       0.00594400 
Ga       4.82444000       0.92846000       2.61537000      -0.00004400      -0.00003300       0.00597700 
Ga      -0.00000000       3.71385000       7.85533000       0.00003600       0.00000800       0.00605900 
Ga       1.60815000       0.92846000       7.85533000       0.00002200       0.00003300       0.00603600 
Ga       3.21629000       3.71385000       7.85533000       0.00001600       0.00004700       0.00590900 
Ga       4.82444000       0.92846000       7.85533000       0.00002100       0.00002800       0.00600600 
Ga      -0.00000000       3.71385000       2.61537000      -0.00000100      -0.00001600       0.00602600 
Ga      -0.00000000       1.85693000       5.23535000       0.00005800      -0.00002200       0.00598300 
Ga       1.60815000       4.64231000       5.23535000       0.00000700       0.00000700       0.00598600 
Ga       3.21629000       1.85693000       5.23535000       0.00000200      -0.00004600       0.00598900 
Ga      -1.60815000       4.64231000      10.47531000       0.00007000      -0.00002900       0.00600700 
Ga      -0.00000000       1.85693000      10.47531000       0.00001600       0.00003400       0.00596000 
Ga       1.60815000       4.64231000      10.47531000      -0.00006800      -0.00006300       0.00598400 
Ga       3.21629000       1.85693000      10.47531000      -0.00002500      -0.00001900       0.00599500 
Ga      -1.60815000       4.64231000       5.23535000      -0.00004500       0.00000300       0.00597800 
N       1.60815000       0.92846000       4.58958000      -0.00002300       0.00001700      -0.00312200 
N       3.21629000       3.71385000       4.58958000      -0.00003900       0.00002700      -0.00313500 
N       4.82444000       0.92846000       4.58958000      -0.00000000      -0.00001700      -0.00311000 
N      -0.00000000       3.71385000       9.82954000       0.00003700       0.00002000      -0.00309800 
N       1.60815000       0.92846000       9.82954000       0.00001100       0.00005500      -0.00313900 
N       3.21629000       3.71385000       9.82954000      -0.00002400      -0.00002200      -0.00306800 
N       4.82444000       0.92846000       9.82954000      -0.00003900       0.00000200      -0.00311000 
N      -0.00000000       3.71385000       4.58958000       0.00001900      -0.00000000      -0.00315100 
N      -0.00000000       1.85693000       1.96960000       0.00001500       0.00005400      -0.00311700 
N       1.60815000       4.64231000       1.96960000      -0.00001300      -0.00002900      -0.00315600 
N       3.21629000       1.85693000       1.96960000      -0.00001600      -0.00007900      -0.00305800 
N      -1.60815000       4.64231000       7.20956000       0.00004400       0.00001900      -0.00313800 
N      -0.00000000       1.85693000       7.20956000       0.00003400      -0.00000000      -0.00313600 
N       1.60815000       4.64231000       7.20956000      -0.00000800      -0.00005000      -0.00316200 
N       3.21629000       1.85693000       7.20956000      -0.00000600      -0.00004500      -0.00320800 
N      -1.60815000       4.64231000       1.96960000       0.00007400       0.00002200      -0.00316000 
32
Lattice="6.43258026 0.0 0.0 -3.216290136 5.570777914 0.0 0.0 0.0 10.47992492" Properties=species:S:1:pos:R:3:forces:R:3 tag=CrystalGa16N16 energy=-194.53574795 pbc="T T T"
Ga       1.60831000       0.93027000       2.61407000      -0.06415500       0.01569200      -0.09605900 
Ga       3.21895000       3.71240000       2.61547000      -0.04968800       0.08492900       0.00241900 
Ga       4.82185000       0.93168000       2.61697000       0.04326800      -0.08938100      -0.01922200 
Ga      -0.00035000       3.71564000       7.85655000       0.04050400      -0.03309700       0.04874100 
Ga       1.60907000       0.92718000       7.85469000      -0.00546100       0.05340200       0.05192600 
Ga       3.21843000       3.71614000       7.85426000      -0.05663500      -0.02734600       0.02176300 
Ga       4.82539000       0.92960000       7.85564000      -0.00471800      -0.02160100       0.01322000 
Ga      -0.00283000       3.71217000       2.61659000       0.08991800       0.10033000      -0.08365400 
Ga      -0.00215000       1.85637000       5.23504000       0.01002600       0.00796400      -0.03871600 
Ga       1.60639000       4.63687000       5.23575000       0.00912300       0.05354700       0.00177500 
Ga       3.21578000       1.85580000       5.23665000      -0.02691700      -0.05179100       0.00862100 
Ga      -1.60567000       4.64386000      10.47511000      -0.00821100      -0.08377400       0.00543000 
Ga       0.00138000       1.85513000      10.47378000      -0.07125500      -0.01926400       0.02991200 
Ga       1.60967000       4.64152000      10.47527000      -0.01920100       0.00084500       0.00650900 
Ga       3.21836000       1.85563000      10.47482000      -0.04114800       0.03595200      -0.01303400 
Ga      -1.60995000       4.64641000       5.23790000      -0.00522900      -0.06740100      -0.07066200 
N       1.60894000       0.92527000       4.57771000      -0.06754000       0.07704000       0.18521200 
N       3.21597000       3.70615000       4.59465000       0.00301200       0.11160900      -0.06215300 
N       4.81746000       0.92480000       4.59035000       0.11109200       0.01055800       0.01131800 
N       0.00637000       3.70620000       9.83405000      -0.10902100       0.11230400      -0.09708200 
N       1.60191000       0.92602000       9.83028000       0.13971200       0.02114700      -0.02642700 
N       3.21325000       3.71819000       9.82875000       0.10517000      -0.09539800      -0.01723500 
N       4.82477000       0.92329000       9.82847000      -0.02229700       0.07888800      -0.01350200 
N      -0.00373000       3.71910000       4.58460000       0.00983000      -0.11052200       0.09373100 
N      -0.00922000       1.86304000       1.96552000       0.13637300      -0.09417800       0.06264300 
N       1.61044000       4.64637000       1.96241000      -0.02291500      -0.06063900       0.15266500 
N       3.21898000       1.85878000       1.97119000      -0.07183100      -0.00518300      -0.05796400 
N      -1.60625000       4.64427000       7.20813000      -0.01444100      -0.01483100       0.01833900 
N       0.00172000       1.85791000       7.21137000      -0.00726700      -0.00044900      -0.05850000 
N       1.60623000       4.64405000       7.21110000       0.03565800      -0.02542000      -0.03761500 
N       3.21736000       1.85575000       7.21134000      -0.01834300       0.03103500      -0.01875200 
N      -1.60545000       4.64475000       1.96780000      -0.04733700       0.00043700       0.01676200 
32
Lattice="6.43258026 0.0 0.0 -3.216290136 5.570777914 0.0 0.0 0.0 10.47992492" Properties=species:S:1:pos:R:3:forces:R:3 tag=CrystalGa16N16 energy=-194.5114216 pbc="T T T"
Ga       1.60847000       0.93207000       2.61275000      -0.12275200       0.04078000      -0.22201000 
Ga       3.22160000       3.71095000       2.61557000      -0.08146700       0.15952100      -0.00561700 
Ga       4.81927000       0.93488000       2.61857000       0.06961600      -0.15991700      -0.03448400 
Ga      -0.00069000       3.71743000       7.85778000       0.08011900      -0.05671600       0.09358400 
Ga       1.60999000       0.92590000       7.85405000      -0.00539000       0.09359500       0.08125900 
Ga       3.22056000       3.71842000       7.85320000      -0.11313100      -0.05061900       0.04337600 
Ga       4.82635000       0.93074000       7.85595000      -0.00654300      -0.04139900       0.01958100 
Ga      -0.00564000       3.71050000       2.61781000       0.16018900       0.18821500      -0.16827400 
Ga      -0.00430000       1.85582000       5.23472000       0.00387500       0.01117400      -0.08989400 
Ga       1.60464000       4.63144000       5.23615000       0.01561700       0.09052700       0.00596300 
Ga       3.21526000       1.85467000       5.23796000      -0.05438700      -0.10811000       0.01663300 
Ga      -1.60319000       4.64540000      10.47491000      -0.00542100      -0.15626900       0.00706600 
Ga       0.00276000       1.85333000      10.47226000      -0.14667500      -0.03683000       0.05575400 
Ga       1.61120000       4.64072000      10.47522000      -0.03095200      -0.00440200       0.00433100 
Ga       3.22043000       1.85434000      10.47432000      -0.06526200       0.06292600      -0.04211300 
Ga      -1.61176000       4.65050000       5.24043000      -0.01340800      -0.11159500      -0.15100600 
N       1.60968000       0.92213000       4.56597000      -0.13225200       0.15343600       0.38544000 
N       3.21565000       3.69853000       4.59967000       0.00731100       0.22943600      -0.12417500 
N       4.81056000       0.92115000       4.59113000       0.22432200       0.02201100       0.02581200 
N       0.01266000       3.69863000       9.83849000      -0.21894200       0.23000000      -0.19594000 
N       1.59577000       0.92359000       9.83100000       0.28283600       0.04245000      -0.05427600 
N       3.21029000       3.72246000       9.82796000       0.21373800      -0.19323700      -0.03351800 
N       4.82509000       0.91818000       9.82739000      -0.04450100       0.16185600      -0.02414200 
N      -0.00745000       3.72427000       4.57968000       0.02080200      -0.21905300       0.19440400 
N      -0.01836000       1.86909000       1.96150000       0.27023700      -0.18924700       0.12581800 
N       1.61272000       4.65037000       1.95532000      -0.04477200      -0.12107900       0.31194300 
N       3.22162000       1.86064000       1.97275000      -0.14526500      -0.01180300      -0.11305600 
N      -1.60437000       4.64622000       7.20671000      -0.03031200      -0.03162800       0.04032600 
N       0.00344000       1.85889000       7.21314000      -0.01584200      -0.00140400      -0.11385600 
N       1.60434000       4.64576000       7.21261000       0.07228300      -0.05170600      -0.07254100 
N       3.21842000       1.85460000       7.21311000      -0.03718300       0.06300000      -0.03555900 
N      -1.60279000       4.64719000       1.96600000      -0.09593200      -0.00131500       0.03810500 
32
Lattice="6.43258026 0.0 0.0 -3.216290136 5.570777914 0.0 0.0 0.0 10.47992492" Properties=species:S:1:pos:R:3:forces:R:3 tag=CrystalGa16N16 energy=-194.47208924 pbc="T T T"
Ga       1.60861000       0.93389000       2.61140000      -0.17730700       0.05750700      -0.32674600 
Ga       3.22424000       3.70953000       2.61567000      -0.12040100       0.23826400      -0.01334500 
Ga       4.81669000       0.93806000       2.62016000       0.10534200      -0.23674700      -0.05492900 
Ga      -0.00102000       3.71921000       7.85901000       0.11630300      -0.08133200       0.13957600 
Ga       1.61092000       0.92464000       7.85342000      -0.01021600       0.14558900       0.12292000 
Ga       3.22268000       3.72070000       7.85214000      -0.16533400      -0.06620500       0.06240900 
Ga       4.82730000       0.93187000       7.85627000      -0.00058400      -0.05566000       0.02264500 
Ga      -0.00844000       3.70886000       2.61900000       0.22552100       0.27422200      -0.25379100 
Ga      -0.00646000       1.85527000       5.23439000      -0.00180300       0.02124800      -0.12931000 
Ga       1.60290000       4.62602000       5.23654000       0.01866200       0.12648700      -0.00074400 
Ga       3.21474000       1.85353000       5.23926000      -0.08838400      -0.17055100       0.02896300 
Ga      -1.60072000       4.64692000      10.47472000      -0.00510200      -0.23456200       0.00881500 
Ga       0.00411000       1.85153000      10.47074000      -0.21962100      -0.06286800       0.09022500 
Ga       1.61272000       4.63992000      10.47517000      -0.04795100      -0.00695100       0.00116100 
Ga       3.22249000       1.85306000      10.47381000      -0.09188300       0.09169800      -0.05762400 
Ga      -1.61357000       4.65458000       5.24294000      -0.02033000      -0.16069700      -0.22099200 
N       1.61034000       0.91910000       4.55450000      -0.19342300       0.22390100       0.58297400 
N       3.21534000       3.69106000       4.60461000       0.01043000       0.34649100      -0.18338000 
N       4.80382000       0.91751000       4.59193000       0.33203100       0.03117800       0.03733100 
N       0.01881000       3.69122000       9.84279000      -0.32252500       0.34600300      -0.29143200 
N       1.58983000       0.92120000       9.83168000       0.42015300       0.06041800      -0.08289400 
N       3.20747000       3.72661000       9.82714000       0.31917800      -0.28625800      -0.05048500 
N       4.82538000       0.91317000       9.82629000      -0.06562400       0.24097300      -0.03433900 
N      -0.01117000       3.72929000       4.57490000       0.03074500      -0.32066500       0.29184500 
N      -0.02730000       1.87501000       1.95755000       0.39328600      -0.27927900       0.18355700 
N       1.61497000       4.65430000       1.94845000      -0.06379200      -0.17568900       0.46709400 
N       3.22416000       1.86248000       1.97423000      -0.21764100      -0.01845100      -0.16769200 
N      -1.60250000       4.64814000       7.20532000      -0.04574400      -0.04780500       0.06232700 
N       0.00514000       1.85987000       7.21483000      -0.02471800      -0.00257500      -0.16663500 
N       1.60250000       4.64744000       7.21407000       0.10779800      -0.07719200      -0.10687100 
N       3.21945000       1.85349000       7.21485000      -0.05514200       0.09372700      -0.05122600 
N      -1.60020000       4.64963000       1.96424000      -0.14168200      -0.00251800       0.05690800 
32
Lattice="6.43258026 0.0 0.0 -3.216290136 5.570777914 0.0 0.0 0.0 10.47992492" Properties=species:S:1:pos:R:3:forces:R:3 tag=CrystalGa16N16 energy=-194.41955154 pbc="T T T"
Ga       1.60872000       0.93571000       2.61001000      -0.22744300       0.07439800      -0.42793000 
Ga       3.22687000       3.70814000       2.61577000      -0.16398000       0.31976300      -0.01830900 
Ga       4.81413000       0.94121000       2.62175000       0.13892500      -0.32242400      -0.07243100 
Ga      -0.00134000       3.72098000       7.86027000       0.15693300      -0.10694200       0.17994500 
Ga       1.61184000       0.92340000       7.85281000      -0.01033600       0.19121500       0.16705200 
Ga       3.22478000       3.72297000       7.85109000      -0.22245500      -0.09333800       0.09395500 
Ga       4.82826000       0.93300000       7.85659000       0.00015800      -0.07059600       0.02992500 
Ga      -0.01120000       3.70726000       2.62015000       0.29703400       0.36297900      -0.33584400 
Ga      -0.00861000       1.85472000       5.23404000      -0.00591400       0.02949100      -0.16550200 
Ga       1.60115000       4.62061000       5.23694000       0.02132600       0.17296500      -0.00061000 
Ga       3.21420000       1.85236000       5.24057000      -0.11344000      -0.22486500       0.03494600 
Ga      -1.59824000       4.64840000      10.47452000      -0.01480000      -0.31325300       0.00943500 
Ga       0.00544000       1.84972000      10.46923000      -0.29679500      -0.08341900       0.12655100 
Ga       1.61424000       4.63912000      10.47513000      -0.06235000      -0.01205200       0.00292800 
Ga       3.22454000       1.85179000      10.47330000      -0.12131900       0.11626100      -0.07408500 
Ga      -1.61538000       4.65863000       5.24543000      -0.02245800      -0.22162400      -0.29583100 
N       1.61086000       0.91621000       4.54342000      -0.24916500       0.28889000       0.77695900 
N       3.21504000       3.68383000       4.60943000       0.01406700       0.46040900      -0.24159900 
N       4.79730000       0.91389000       4.59276000       0.43324900       0.03928700       0.04649700 
N       0.02473000       3.68403000       9.84690000      -0.41966200       0.45982800      -0.38353700 
N       1.58417000       0.91884000       9.83231000       0.55061100       0.07696300      -0.11176600 
N       3.20487000       3.73055000       9.82628000       0.42146100      -0.37507400      -0.06723000 
N       4.82562000       0.90833000       9.82517000      -0.08520800       0.31722800      -0.04391900 
N      -0.01486000       3.73410000       4.57032000       0.04083500      -0.41460000       0.38584800 
N      -0.03599000       1.88074000       1.95373000       0.50657100      -0.36367800       0.23633200 
N       1.61717000       4.65811000       1.94189000      -0.08026700      -0.22614700       0.61594600 
N       3.22655000       1.86431000       1.97559000      -0.28655000      -0.02513900      -0.22014400 
N      -1.60067000       4.65004000       7.20397000      -0.06022900      -0.06367100       0.08342200 
N       0.00684000       1.86085000       7.21641000      -0.03399600      -0.00406300      -0.21565600 
N       1.60074000       4.64906000       7.21546000       0.14194500      -0.10147900      -0.13950400 
N       3.22045000       1.85244000       7.21656000      -0.07206000       0.12323000      -0.06637900 
N      -1.59770000       4.65207000       1.96251000      -0.18387600      -0.00411800       0.07381500 
32
Lattice="6.43258026 0.0 0.0 -3.216290136 5.570777914 0.0 0.0 0.0 10.47992492" Properties=species:S:1:pos:R:3:forces:R:3 tag=CrystalGa16N16 energy=-194.35619905 pbc="T T T"
Ga       1.60880000       0.93754000       2.60855000      -0.26884400       0.07930700      -0.52839300 
Ga       3.22947000       3.70679000       2.61587000      -0.20402600       0.39628300      -0.02570200 
Ga       4.81159000       0.94432000       2.62333000       0.17552900      -0.40222400      -0.09165900 
Ga      -0.00163000       3.72274000       7.86156000       0.19299100      -0.13728400       0.21129400 
Ga       1.61277000       0.92217000       7.85223000      -0.01384400       0.24340500       0.20856400 
Ga       3.22685000       3.72523000       7.85004000      -0.27749300      -0.11578500       0.11987400 
Ga       4.82922000       0.93411000       7.85691000      -0.00366700      -0.09006700       0.03090200 
Ga      -0.01393000       3.70570000       2.62126000       0.36925700       0.45074700      -0.41353100 
Ga      -0.01077000       1.85417000       5.23367000      -0.01114900       0.03305700      -0.19832000 
Ga       1.59940000       4.61521000       5.23734000       0.02909500       0.21110000      -0.00530700 
Ga       3.21365000       1.85115000       5.24189000      -0.13672700      -0.28067600       0.04524400 
Ga      -1.59576000       4.64985000      10.47432000      -0.02478300      -0.38794000       0.01863600 
Ga       0.00673000       1.84789000      10.46774000      -0.37290500      -0.10136600       0.16565600 
Ga       1.61575000       4.63831000      10.47508000      -0.08148900      -0.01280800      -0.00173000 
Ga       3.22657000       1.85053000      10.47278000      -0.14722100       0.15277800      -0.08556900 
Ga      -1.61720000       4.66266000       5.24788000      -0.02494900      -0.28061600      -0.37932800 
N       1.61121000       0.91352000       4.53285000      -0.29963000       0.34944400       0.96753100 
N       3.21474000       3.67690000       4.61409000       0.01758500       0.57307600      -0.29754300 
N       4.79107000       0.91030000       4.59362000       0.52885400       0.04682700       0.05455200 
N       0.03038000       3.67715000       9.85075000      -0.50973400       0.57127200      -0.47043400 
N       1.57888000       0.91653000       9.83286000       0.67467500       0.09222400      -0.14052300 
N       3.20255000       3.73425000       9.82537000       0.51876700      -0.45848800      -0.08335500 
N       4.82580000       0.90370000       9.82401000      -0.10238000       0.39022000      -0.05240100 
N      -0.01853000       3.73863000       4.56599000       0.04942900      -0.50151000       0.47636000 
N      -0.04433000       1.88624000       1.95007000       0.61229000      -0.44437900       0.28446400 
N       1.61933000       4.66177000       1.93575000      -0.09590700      -0.27182200       0.75887800 
N       3.22874000       1.86613000       1.97681000      -0.35177100      -0.03172100      -0.26990400 
N      -1.59887000       4.65189000       7.20268000      -0.07364900      -0.07897000       0.10396100 
N       0.00851000       1.86183000       7.21784000      -0.04338300      -0.00557000      -0.26080300 
N       1.59907000       4.65062000       7.21676000       0.17412900      -0.12400200      -0.16989200 
N       3.22139000       1.85147000       7.21823000      -0.08767100       0.15128900      -0.08087400 
N      -1.59532000       4.65451000       1.96084000      -0.22343100      -0.00690300       0.08998600 
32
Lattice="6.43258026 0.0 0.0 -3.216290136 5.570777914 0.0 0.0 0.0 10.47992492" Properties=species:S:1:pos:R:3:forces:R:3 tag=CrystalGa16N16 energy=-194.28486271 pbc="T T T"
Ga       1.60885000       0.93940000       2.60702000      -0.30708000       0.09608000      -0.62180700 
Ga       3.23206000       3.70549000       2.61596000      -0.24426600       0.47259300      -0.03233500 
Ga       4.80906000       0.94738000       2.62490000       0.21168000      -0.48081900      -0.11537400 
Ga      -0.00190000       3.72449000       7.86288000       0.22975800      -0.17228600       0.24399000 
Ga       1.61369000       0.92098000       7.85167000      -0.02115700       0.29142800       0.23945600 
Ga       3.22888000       3.72748000       7.84902000      -0.32625800      -0.14013500       0.13986500 
Ga       4.83018000       0.93522000       7.85724000       0.00259600      -0.10314900       0.03704100 
Ga      -0.01661000       3.70420000       2.62232000       0.42577400       0.52742000      -0.47833600 
Ga      -0.01293000       1.85363000       5.23327000      -0.01456000       0.04097800      -0.22506000 
Ga       1.59765000       4.60983000       5.23774000       0.03420900       0.25574900      -0.00204800 
Ga       3.21308000       1.84991000       5.24322000      -0.15724500      -0.33589300       0.05455000 
Ga      -1.59328000       4.65124000      10.47413000      -0.03691700      -0.45773100       0.01969200 
Ga       0.00797000       1.84604000      10.46627000      -0.44090200      -0.12103400       0.20003400 
Ga       1.61726000       4.63750000      10.47504000      -0.09204200      -0.01796300       0.00183000 
Ga       3.22859000       1.84929000      10.47224000      -0.17448600       0.18144500      -0.09335400 
Ga      -1.61903000       4.66667000       5.25028000      -0.03092100      -0.32204600      -0.44809500 
N       1.61135000       0.91107000       4.52292000      -0.34447000       0.40370700       1.14699400 
N       3.21446000       3.67034000       4.61856000       0.02026300       0.67947500      -0.35007900 
N       4.78518000       0.90672000       4.59452000       0.61553900       0.05378400       0.05915800 
N       0.03570000       3.67065000       9.85429000      -0.59101500       0.67593500      -0.55117900 
N       1.57404000       0.91427000       9.83332000       0.78989600       0.10619300      -0.16773300 
N       3.20059000       3.73764000       9.82441000       0.60860900      -0.53462400      -0.09756300 
N       4.82592000       0.89932000       9.82282000      -0.11668500       0.45779400      -0.05873000 
N      -0.02218000       3.74282000       4.56198000       0.05836600      -0.58019100       0.56060700 
N      -0.05229000       1.89144000       1.94659000       0.70611800      -0.51873000       0.32706400 
N       1.62142000       4.66525000       1.93011000      -0.11037300      -0.31304600       0.89195400 
N       3.23071000       1.86794000       1.97784000      -0.41205500      -0.03890200      -0.31579200 
N      -1.59712000       4.65369000       7.20145000      -0.08630900      -0.09378200       0.12417700 
N       0.01015000       1.86281000       7.21910000      -0.05255000      -0.00714500      -0.30073900 
N       1.59751000       4.65210000       7.21794000       0.20404700      -0.14466300      -0.19737000 
N       3.22228000       1.85061000       7.21985000      -0.10151300       0.17709600      -0.09421100 
N      -1.59309000       4.65696000       1.95921000      -0.26005400      -0.01109500       0.10517500 
32
Lattice="6.43258026 0.0 0.0 -3.216290136 5.570777914 0.0 0.0 0.0 10.47992492" Properties=species:S:1:pos:R:3:forces:R:3 tag=CrystalGa16N16 energy=-194.20870742 pbc="T T T"
Ga       1.60885000       0.94127000       2.60539000      -0.34737700       0.09979300      -0.70843700 
Ga       3.23463000       3.70425000       2.61605000      -0.27762400       0.53872500      -0.03895700 
Ga       4.80655000       0.95040000       2.62646000       0.23712500      -0.55052900      -0.12341900 
Ga      -0.00214000       3.72622000       7.86424000       0.26327800      -0.20001200       0.27213500 
Ga       1.61462000       0.91983000       7.85113000      -0.02418600       0.34018200       0.27283400 
Ga       3.23089000       3.72972000       7.84800000      -0.37883100      -0.16404200       0.16030200 
Ga       4.83115000       0.93632000       7.85758000      -0.00026700      -0.11644400       0.03253200 
Ga      -0.01926000       3.70277000       2.62332000       0.47574100       0.59844800      -0.54203400 
Ga      -0.01511000       1.85309000       5.23283000      -0.01959900       0.04723300      -0.24979300 
Ga       1.59590000       4.60445000       5.23815000       0.03761100       0.30210400      -0.00634400 
Ga       3.21248000       1.84861000       5.24456000      -0.17746100      -0.38555000       0.06284200 
Ga      -1.59079000       4.65258000      10.47394000      -0.04234000      -0.52285900       0.02563900 
Ga       0.00915000       1.84416000      10.46481000      -0.50425300      -0.14544900       0.23738100 
Ga       1.61876000       4.63669000      10.47499000      -0.10701400      -0.02290800      -0.00413100 
Ga       3.23060000       1.84807000      10.47169000      -0.18977000       0.20733300      -0.10522700 
Ga      -1.62087000       4.67065000       5.25264000      -0.03281200      -0.36702200      -0.50426100 
N       1.61126000       0.90888000       4.51373000      -0.38212600       0.45232000       1.31324600 
N       3.21418000       3.66422000       4.62281000       0.02401300       0.77834400      -0.40077200 
N       4.77968000       0.90316000       4.59546000       0.69320100       0.06101600       0.06299600 
N       0.04063000       3.66457000       9.85747000      -0.66341400       0.77362400      -0.62441200 
N       1.56971000       0.91208000       9.83366000       0.89326600       0.11996600      -0.19329400 
N       3.19903000       3.74068000       9.82337000       0.68976200      -0.60322300      -0.10932100 
N       4.82595000       0.89524000       9.82158000      -0.12711300       0.51864900      -0.06207500 
N      -0.02580000       3.74664000       4.55834000       0.06579300      -0.64998800       0.63778500 
N      -0.05980000       1.89631000       1.94332000       0.79010300      -0.58697600       0.36331000 
N       1.62345000       4.66854000       1.92506000      -0.12331900      -0.35006000       1.01182600 
N       3.23239000       1.86972000       1.97866000      -0.46683700      -0.04714800      -0.35794200 
N      -1.59542000       4.65544000       7.20030000      -0.09831400      -0.10870000       0.14421300 
N       0.01177000       1.86379000       7.22015000      -0.06182400      -0.00886000      -0.33436000 
N       1.59609000       4.65348000       7.21899000       0.23132900      -0.16329100      -0.22132600 
N       3.22311000       1.84986000       7.22141000      -0.11309900       0.20078500      -0.10634600 
N      -1.59103000       4.65941000       1.95766000      -0.29244900      -0.01661800       0.11844700 
32
Lattice="6.43258026 0.0 0.0 -3.216290136 5.570777914 0.0 0.0 0.0 10.47992492" Properties=species:S:1:pos:R:3:forces:R:3 tag=CrystalGa16N16 energy=-194.13090353 pbc="T T T"
Ga       1.60881000       0.94318000       2.60365000      -0.37981600       0.10646800      -0.78541800 
Ga       3.23718000       3.70307000       2.61613000      -0.31308400       0.60727100      -0.03451500 
Ga       4.80405000       0.95336000       2.62802000       0.26869900      -0.62546800      -0.13285800 
Ga      -0.00234000       3.72794000       7.86565000       0.29703300      -0.22711100       0.29421400 
Ga       1.61555000       0.91871000       7.85064000      -0.02456400       0.38627400       0.30737000 
Ga       3.23285000       3.73196000       7.84700000      -0.42026600      -0.19112600       0.17562200 
Ga       4.83212000       0.93741000       7.85792000      -0.00331100      -0.13022300       0.02353900 
Ga      -0.02185000       3.70140000       2.62425000       0.52892500       0.66895000      -0.60358400 
Ga      -0.01731000       1.85255000       5.23236000      -0.02143100       0.05190200      -0.26822100 
Ga       1.59414000       4.59907000       5.23855000       0.04096400       0.33594600      -0.01004400 
Ga       3.21185000       1.84724000       5.24592000      -0.19600600      -0.42436600       0.06794700 
Ga      -1.58828000       4.65386000      10.47375000      -0.05689000      -0.58724600       0.03193100 
Ga       0.01028000       1.84225000      10.46338000      -0.56759700      -0.16571300       0.27006100 